# vtk DataFile Version 3.0
d-3__ created by libgimli-v1.3.0
ASCII
DATASET UNSTRUCTURED_GRID
POINTS 8 double
0	0	0
7.75	0	0
7.75	0	-2
0	0	-2
0	1.5	0
7.75	1.5	0
7.75	1.5	-2
0	1.5	-2
CELLS 6 30
4	4	5	1	0	
4	5	6	2	1	
4	6	7	3	2	
4	7	4	0	3	
4	0	1	2	3	
4	7	6	5	4	
CELL_TYPES 6
7 7 7 7 7 7 
CELL_DATA 6
SCALARS Marker double 1
LOOKUP_TABLE default
1 1 1 1 1 1 
